                               Psi4 1.7 release

  ==> Input File <==

--------------------------------------------------------------------------
molecule dvb {
    0 1
    C    -1.4152533224   0.2302217854   0.0000000000
    C     1.4152533224  -0.2302217854   0.0000000000
    C    -0.4951331558   1.3144608674   0.0000000000
    C     0.4951331558  -1.3144608674   0.0000000000
    C     0.8894090436   1.0909493743   0.0000000000
    C    -0.8894090436  -1.0909493743   0.0000000000
    H    -0.8795511985   2.3437343748   0.0000000000
    H     0.8795511985  -2.3437343748   0.0000000000
    H     1.5779041557   1.9450061275   0.0000000000
    H    -1.5779041557  -1.9450061275   0.0000000000
    C     2.8845844962  -0.5210893778   0.0000000000
    C    -2.8845844962   0.5210893778   0.0000000000
    H     3.1403356810  -1.5919605685   0.0000000000
    H    -3.1403356810   1.5919605685   0.0000000000
    C     3.8800428103   0.3822535424   0.0000000000
    C    -3.8800428103  -0.3822535424   0.0000000000
    H     3.6946765858   1.4624389570   0.0000000000
    H    -3.6946765858  -1.4624389570   0.0000000000
    H     4.9316453546   0.0711049543   0.0000000000
    H    -4.9316453546  -0.0711049543   0.0000000000
}

set {
    basis sto-3g
    fd_project true
}

frequencies('scf', dertype='gradient')
--------------------------------------------------------------------------

                               Psi4 1.7 release
    Molecular point group: c2h
  Charge       = 0
  Multiplicity = 1
  Basis Set: STO-3G
    Blend: STO-3G
  Basis Set: (STO-3G AUX)
    Blend: DEF2-UNIVERSAL-JKFIT
  @DF-RHF Final Energy:  -379.77011152016200
    Total Energy =                       -379.7701115201620041
 Dipole X            :          0.0000000            0.0000000            0.0000000
 Dipole Y            :          0.0000000            0.0000000            0.0000000
 Dipole Z            :          0.0000000            0.0000000            0.0000000
 Magnitude           :                                                    0.0000000
    Molecular point group: c2h
  Basis Set: STO-3G
    Blend: STO-3G
  Basis Set: (STO-3G AUX)
    Blend: DEF2-UNIVERSAL-JKFIT
                               Psi4 1.7 release
  Basis Set: STO-3G
    Blend: STO-3G
  Basis Set: (STO-3G AUX)
    Blend: DEF2-UNIVERSAL-JKFIT
  @DF-RHF Final Energy:  -379.77006013479900
    Total Energy =                       -379.7700601347989959
  Basis Set: STO-3G
    Blend: STO-3G
  Basis Set: (STO-3G AUX)
    Blend: DEF2-UNIVERSAL-JKFIT
                               Psi4 1.7 release
  Basis Set: STO-3G
    Blend: STO-3G
  @DF-RHF Final Energy:  -379.77016119571255
    Total Energy =                       -379.7701611957124896
                               Psi4 1.7 release
  @DF-RHF Final Energy:  -379.77011824601664
    Total Energy =                       -379.7701182460166365
                               Psi4 1.7 release
  @DF-RHF Final Energy:  -379.77010279783167
    Total Energy =                       -379.7701027978316688
                               Psi4 1.7 release
  @DF-RHF Final Energy:  -379.77010430944449
    Total Energy =                       -379.7701043094444913
                               Psi4 1.7 release
  @DF-RHF Final Energy:  -379.77011672060883
    Total Energy =                       -379.7701167206088257
                               Psi4 1.7 release
  @DF-RHF Final Energy:  -379.77013970011046
    Total Energy =                       -379.7701397001104624
                               Psi4 1.7 release
  @DF-RHF Final Energy:  -379.77008142000676
    Total Energy =                       -379.7700814200068180
                               Psi4 1.7 release
  @DF-RHF Final Energy:  -379.77012238740326
    Total Energy =                       -379.7701223874032621
                               Psi4 1.7 release
  @DF-RHF Final Energy:  -379.77009869515496
    Total Energy =                       -379.7700986951549567
                               Psi4 1.7 release
  @DF-RHF Final Energy:  -379.77013811655360
    Total Energy =                       -379.7701381165536532
                               Psi4 1.7 release
  @DF-RHF Final Energy:  -379.77008304475345
    Total Energy =                       -379.7700830447533917
                               Psi4 1.7 release
  @DF-RHF Final Energy:  -379.77007413984546
    Total Energy =                       -379.7700741398454056
                               Psi4 1.7 release
  @DF-RHF Final Energy:  -379.77014575911409
    Total Energy =                       -379.7701457591140297
                               Psi4 1.7 release
  @DF-RHF Final Energy:  -379.77019840148722
    Total Energy =                       -379.7701984014872778
                               Psi4 1.7 release
  @DF-RHF Final Energy:  -379.77001461054391
    Total Energy =                       -379.7700146105438535
                               Psi4 1.7 release
  @DF-RHF Final Energy:  -379.77017829575266
    Total Energy =                       -379.7701782957526575
                               Psi4 1.7 release
  @DF-RHF Final Energy:  -379.77003898931895
    Total Energy =                       -379.7700389893190049
                               Psi4 1.7 release
  @DF-RHF Final Energy:  -379.77017667361639
    Total Energy =                       -379.7701766736163336
                               Psi4 1.7 release
                               Psi4 1.7 release
                               Psi4 1.7 release
                               Psi4 1.7 release
                               Psi4 1.7 release
                               Psi4 1.7 release
                               Psi4 1.7 release
                               Psi4 1.7 release
                               Psi4 1.7 release
                               Psi4 1.7 release
                               Psi4 1.7 release
                               Psi4 1.7 release
                               Psi4 1.7 release
                               Psi4 1.7 release
                               Psi4 1.7 release
                               Psi4 1.7 release
                               Psi4 1.7 release
                               Psi4 1.7 release
                               Psi4 1.7 release
                               Psi4 1.7 release
                               Psi4 1.7 release
                               Psi4 1.7 release
                               Psi4 1.7 release
                               Psi4 1.7 release
                               Psi4 1.7 release
                               Psi4 1.7 release
                               Psi4 1.7 release
                               Psi4 1.7 release
                               Psi4 1.7 release
                               Psi4 1.7 release
                               Psi4 1.7 release
                               Psi4 1.7 release
                               Psi4 1.7 release
                               Psi4 1.7 release
                               Psi4 1.7 release
  @DF-RHF Final Energy:  -379.77011087955236
    Total Energy =                       -379.7701108795523623
                               Psi4 1.7 release
  @DF-RHF Final Energy:  -379.77011110593162
    Total Energy =                       -379.7701111059316190
                               Psi4 1.7 release
  @DF-RHF Final Energy:  -379.77011045875361
    Total Energy =                       -379.7701104587536065
                               Psi4 1.7 release
  @DF-RHF Final Energy:  -379.77011076695561
    Total Energy =                       -379.7701107669556677
                               Psi4 1.7 release
  @DF-RHF Final Energy:  -379.77011074256632
    Total Energy =                       -379.7701107425663167
                               Psi4 1.7 release
  @DF-RHF Final Energy:  -379.77011041749677
    Total Energy =                       -379.7701104174967668
                               Psi4 1.7 release
  @DF-RHF Final Energy:  -379.77011071422226
    Total Energy =                       -379.7701107142222554
                               Psi4 1.7 release
  @DF-RHF Final Energy:  -379.77011064890399
    Total Energy =                       -379.7701106489040512
                               Psi4 1.7 release
  @DF-RHF Final Energy:  -379.77010998755901
    Total Energy =                       -379.7701099875589534
                               Psi4 1.7 release
  @DF-RHF Final Energy:  -379.77010667194168
    Total Energy =                       -379.7701066719416758
                               Psi4 1.7 release
  @DF-RHF Final Energy:  -379.77010874652251
    Total Energy =                       -379.7701087465225100
                               Psi4 1.7 release
  @DF-RHF Final Energy:  -379.77010786014489
    Total Energy =                       -379.7701078601448899
                               Psi4 1.7 release
  @DF-RHF Final Energy:  -379.77011027286761
    Total Energy =                       -379.7701102728676688
                               Psi4 1.7 release
  @DF-RHF Final Energy:  -379.77010988237799
    Total Energy =                       -379.7701098823780512
                               Psi4 1.7 release
  @DF-RHF Final Energy:  -379.77011029476324
    Total Energy =                       -379.7701102947631853
                               Psi4 1.7 release
  @DF-RHF Final Energy:  -379.77010653545432
    Total Energy =                       -379.7701065354542607
                               Psi4 1.7 release
  @DF-RHF Final Energy:  -379.77010770444872
    Total Energy =                       -379.7701077044487192
                               Psi4 1.7 release
  @DF-RHF Final Energy:  -379.77010746186625
    Total Energy =                       -379.7701074618662460
  Basis Set: (STO-3G AUX)
    Blend: DEF2-UNIVERSAL-JKFIT
                               Psi4 1.7 release
  Basis Set: STO-3G
    Blend: STO-3G
  Basis Set: (STO-3G AUX)
    Blend: DEF2-UNIVERSAL-JKFIT
  @DF-RHF Final Energy:  -379.77010836669990
    Total Energy =                       -379.7701083666999011
  Basis Set: STO-3G
    Blend: STO-3G
  Basis Set: (STO-3G AUX)
    Blend: DEF2-UNIVERSAL-JKFIT
                               Psi4 1.7 release
    Molecular point group: cs
  Charge       = 0
  Multiplicity = 1
  Basis Set: STO-3G
    Blend: STO-3G
  Basis Set: (STO-3G AUX)
    Blend: DEF2-UNIVERSAL-JKFIT

    Orbital Energies [Eh]
    ---------------------

    Doubly Occupied:

       1Ap   -11.040747     2Ap   -11.040684     3Ap   -11.031789
       4Ap   -11.031707     5Ap   -11.029111     6Ap   -11.028980
       7Ap   -11.028768     8Ap   -11.028742     9Ap   -11.017696
      10Ap   -11.017571    11Ap    -1.090317    12Ap    -1.020272
      13Ap    -0.974940    14Ap    -0.950318    15Ap    -0.909651
      16Ap    -0.799896    17Ap    -0.762837    18Ap    -0.727642
      19Ap    -0.696780    20Ap    -0.628047    21Ap    -0.605675
      22Ap    -0.572947    23Ap    -0.553601    24Ap    -0.553162
      25Ap    -0.525353    26Ap    -0.496695    27Ap    -0.492528
       1App   -0.463721    28Ap    -0.446433    29Ap    -0.421659
      30Ap    -0.415628     2App   -0.376953     3App   -0.315119
       4App   -0.278352     5App   -0.222179

  @DF-RHF Final Energy:  -379.77010808485807

   => Energetics <=

    Nuclear Repulsion Energy =            445.9369848719726406
    One-Electron Energy =               -1400.2211890594253418
    Two-Electron Energy =                 574.5140961025946353
    Total Energy =                       -379.7701080848580659
 Dipole X            :         -0.0011697            0.0000000           -0.0011697
 Dipole Y            :         -0.0002610            0.0000000           -0.0002610
 Dipole Z            :          0.0000000            0.0000000            0.0000000
 Magnitude           :                                                    0.0011985
    Molecular point group: cs

    Geometry (in Bohr), charge = 0, multiplicity = 1:

       Center              X                  Y                   Z               Mass
    ------------   -----------------  -----------------  -----------------  -----------------
         C           -2.674441177480     0.435056122520     0.000000000000    12.000000000000
         C            2.674441177480    -0.435056122520     0.000000000000    12.000000000000
         C           -0.935666060096     2.483971042018     0.000000000000    12.000000000000
         C            0.935666060096    -2.483971042018     0.000000000000    12.000000000000
         C            1.680739505909     2.061595534167     0.000000000000    12.000000000000
         C           -1.680739505909    -2.061595534167     0.000000000000    12.000000000000
         H           -1.662110878483     4.429016079193     0.000000000000     1.007825032230
         H            1.662110878483    -4.429016079193     0.000000000000     1.007825032230
         H            2.981806706495     3.675528893312     0.000000000000     1.007825032230
         H           -2.981806706495    -3.675528893312     0.000000000000     1.007825032230
         C            5.451074683560    -0.984716210927     0.000000000000    12.000000000000
         C           -5.451074683560     0.984716210927     0.000000000000    12.000000000000
         H            5.934374379093    -3.008369476993     0.000000000000     1.007825032230
         H           -5.934374379093     3.008369476993     0.000000000000     1.007825032230
         C            7.332218266519     0.722354505622     0.000000000000    12.000000000000
         C           -7.332218266519    -0.722354505622     0.000000000000    12.000000000000
         H            6.981926869304     2.761118828188     0.000000000000     1.007825032230
         H           -6.981926869304    -2.766099379672     0.000000000000     1.007825032230
         H            9.319459068080     0.136859165532     0.000000000000     1.007825032230
         H           -9.319459068080    -0.131878614048     0.000000000000     1.007825032230

  Basis Set: STO-3G
    Blend: STO-3G
  Basis Set: (STO-3G AUX)
    Blend: DEF2-UNIVERSAL-JKFIT

  -Total Gradient:
     Atom            X                  Y                   Z
    ------   -----------------  -----------------  -----------------
       1       -0.024740567458     0.003893032409     0.000000000000
       2        0.024729856191    -0.003914922946     0.000000000000
       3       -0.002956121654     0.014282808279     0.000000000000
       4        0.002948971729    -0.014280787519     0.000000000000
       5        0.005584824537     0.013579105628     0.000000000000
       6       -0.005588939929    -0.013582541276     0.000000000000
       7       -0.005024037106     0.013071946156     0.000000000000
       8        0.005023318174    -0.013070698777     0.000000000000
       9        0.009848272412     0.009822970533     0.000000000000
      10       -0.009856258740    -0.009824993811     0.000000000000
      11       -0.032996810244    -0.017416365565     0.000000000000
      12        0.032790155188     0.017544254096     0.000000000000
      13        0.003244652066    -0.014096200627     0.000000000000
      14       -0.003231162651     0.014113915821     0.000000000000
      15        0.024099506729     0.021821677808     0.000000000000
      16       -0.023893404600    -0.020263519527     0.000000000000
      17       -0.003123303930     0.012400865375     0.000000000000
      18        0.003620563737    -0.014619404614     0.000000000000
      19        0.013018896311    -0.003634787480     0.000000000000
      20       -0.013498410763     0.004173646039     0.000000000000

  Vibration                       7                   8                   9
  Freq [cm^-1]                 137.2531            244.0758            247.5649
  Irrep                           Au                  Bg                  Bu
  Reduced mass [u]              4.5433              3.1411              3.8635
  Force const [mDyne/A]         0.0504              0.1103              0.1395

  IR activ [km/mol]             0.0544              0.0000              0.0655

  Vibration                       10                  11                  12
  Freq [cm^-1]                 319.6159            339.4832            414.4598
  Irrep                           Au                  Ag                  Bg
  Reduced mass [u]              2.0580              3.7774              2.3791
  Force const [mDyne/A]         0.1239              0.2565              0.2408

  IR activ [km/mol]             0.0355              0.0000              0.0000

  Vibration                       13                  14                  15
  Freq [cm^-1]                 452.2471            522.1326            546.2237
  Irrep                           Ag                  Au                  Bu
  Reduced mass [u]              4.5169              3.1775              3.4543
  Force const [mDyne/A]         0.5443              0.5104              0.6072

  IR activ [km/mol]             0.0000              0.0297              2.2872

  Vibration                       16                  17                  18
  Freq [cm^-1]                 597.7306            663.3425            729.5645
  Irrep                           Au                  Ag                  Ag
  Reduced mass [u]              2.3270              2.9751              6.9221
  Force const [mDyne/A]         0.4898              0.7713              2.1708

  IR activ [km/mol]             2.5660              0.0000              0.0000

  Vibration                       19                  20                  21
  Freq [cm^-1]                 791.1124            806.7015            861.5098
  Irrep                           Bg                  Bu                  Au
  Reduced mass [u]              1.9952              3.1514              1.4403
  Force const [mDyne/A]         0.7357              1.2083              0.6298

  IR activ [km/mol]             0.0000              7.4410              0.0045

  Vibration                       22                  23                  24
  Freq [cm^-1]                 923.6819            937.4614            997.8482
  Irrep                           Ag                  Bg                  Bu
  Reduced mass [u]              4.6661              2.7314              6.8698
  Force const [mDyne/A]         2.3456              1.4143              4.0302

  IR activ [km/mol]             0.0000              0.0000              1.8808

  Vibration                       25                  26                  27
  Freq [cm^-1]                1062.5313           1078.4882           1160.7726
  Irrep                           Au                  Bg                  Bu
  Reduced mass [u]              1.5075              1.2493              3.1678
  Force const [mDyne/A]         1.0028              0.8561              2.5148

  IR activ [km/mol]            17.5928              0.0000              0.4156

  Vibration                       28                  29                  30
  Freq [cm^-1]                1181.6014           1181.6719           1197.5788
  Irrep                           Au                  Bg                  Bg
  Reduced mass [u]              1.3453              1.3471              1.2614
  Force const [mDyne/A]         1.1066              1.1083              1.0659

  IR activ [km/mol]            29.7354              0.0000              0.0000

  Vibration                       31                  32                  33
  Freq [cm^-1]                1221.6206           1231.4233           1236.3306
  Irrep                           Au                  Ag                  Bu
  Reduced mass [u]              1.3118              1.5356              1.4641
  Force const [mDyne/A]         1.1535              1.3720              1.3185

  IR activ [km/mol]             0.0412              0.0000              7.1033

  Vibration                       34                  35                  36
  Freq [cm^-1]                1280.8282           1281.0559           1328.2308
  Irrep                           Au                  Bg                  Bu
  Reduced mass [u]              1.0985              1.0998              1.6262
  Force const [mDyne/A]         1.0618              1.0634              1.6903

  IR activ [km/mol]             9.2403              0.0000              5.6123

  Vibration                       37                  38                  39
  Freq [cm^-1]                1381.2807           1387.7807           1426.8887
  Irrep                           Ag                  Ag                  Bu
  Reduced mass [u]              2.5807              1.3132              1.9711
  Force const [mDyne/A]         2.9011              1.4902              2.3645

  IR activ [km/mol]             0.0000              0.0000              0.2444

  Vibration                       40                  41                  42
  Freq [cm^-1]                1533.3267           1542.5455           1558.1267
  Irrep                           Ag                  Bu                  Ag
  Reduced mass [u]              1.4463              1.3670              1.3576
  Force const [mDyne/A]         2.0035              1.9165              1.9420

  IR activ [km/mol]             0.0000             14.5285              0.0000

  Vibration                       43                  44                  45
  Freq [cm^-1]                1636.2900           1714.6594           1726.9039
  Irrep                           Bu                  Ag                  Bu
  Reduced mass [u]              2.1957              1.4029              1.3173
  Force const [mDyne/A]         3.4637              2.4301              2.3145

  IR activ [km/mol]            16.9086              0.0000              4.4927

  Vibration                       46                  47                  48
  Freq [cm^-1]                1787.1012           1807.3508           1874.2978
  Irrep                           Bu                  Ag                  Ag
  Reduced mass [u]              2.1534              3.5320              4.5293
  Force const [mDyne/A]         4.0520              6.7976              9.3748

  IR activ [km/mol]            15.4143              0.0000              0.0000

  Vibration                       49                  50                  51
  Freq [cm^-1]                1942.4014           1944.9352           3519.8432
  Irrep                           Ag                  Bu                  Bu
  Reduced mass [u]              2.9394              2.9545              1.0639
  Force const [mDyne/A]         6.5341              6.5847              7.7658

  IR activ [km/mol]             0.0000              0.9364             146.3398

  Vibration                       52                  53                  54
  Freq [cm^-1]                3521.1277           3565.5984           3565.8797
  Irrep                           Ag                  Bu                  Ag
  Reduced mass [u]              1.0638              1.0995              1.0996
  Force const [mDyne/A]         7.7711              8.2355              8.2378

  IR activ [km/mol]             0.0000             10.9325              0.0000

  Vibration                       55                  56                  57
  Freq [cm^-1]                3575.6043           3582.4287           3602.9058
  Irrep                           Bu                  Ag                  Bu
  Reduced mass [u]              1.0930              1.0946              1.0994
  Force const [mDyne/A]         8.2331              8.2764              8.4084

  IR activ [km/mol]             1.8605              0.0000              5.2569

  Vibration                       58                  59                  60
  Freq [cm^-1]                3605.7876           3680.4151           3680.4324
  Irrep                           Ag                  Ag                  Bu
  Reduced mass [u]              1.0997              1.1197              1.1198
  Force const [mDyne/A]         8.4244              8.9362              8.9369

  IR activ [km/mol]             0.0000              0.0000              0.1911

  ==> Thermochemistry Components <==

  Entropy, S
    Electronic S            0.000 [cal/(mol K)]        0.000 [J/(mol K)]       0.00000000 [mEh/K] (multiplicity = 1)
    Translational S        40.502 [cal/(mol K)]      169.460 [J/(mol K)]       0.06454379 [mEh/K] (mol. weight = 130.0783 [u], P = 101325.00 [Pa])
    Rotational S           28.143 [cal/(mol K)]      117.751 [J/(mol K)]       0.04484891 [mEh/K] (symmetry no. = 2)
    Vibrational S          14.372 [cal/(mol K)]       60.131 [J/(mol K)]       0.02290253 [mEh/K]
  Total S                  83.017 [cal/(mol K)]      347.341 [J/(mol K)]       0.13229523 [mEh/K]
  Correction S              0.000 [cal/(mol K)]        0.000 [J/(mol K)]       0.00000000 [mEh/K]

  Constant volume heat capacity, Cv
    Electronic Cv           0.000 [cal/(mol K)]        0.000 [J/(mol K)]       0.00000000 [mEh/K]
    Translational Cv        2.981 [cal/(mol K)]       12.472 [J/(mol K)]       0.00475022 [mEh/K]
    Rotational Cv           2.981 [cal/(mol K)]       12.472 [J/(mol K)]       0.00475022 [mEh/K]
    Vibrational Cv         22.922 [cal/(mol K)]       95.905 [J/(mol K)]       0.03652842 [mEh/K]
  Total Cv                 28.884 [cal/(mol K)]      120.849 [J/(mol K)]       0.04602885 [mEh/K]
  Correction Cv             0.000 [cal/(mol K)]        0.000 [J/(mol K)]       0.00000000 [mEh/K]

  Constant pressure heat capacity, Cp
    Electronic Cp           0.000 [cal/(mol K)]        0.000 [J/(mol K)]       0.00000000 [mEh/K]
    Translational Cp        4.968 [cal/(mol K)]       20.786 [J/(mol K)]       0.00791703 [mEh/K]
    Rotational Cp           2.981 [cal/(mol K)]       12.472 [J/(mol K)]       0.00475022 [mEh/K]
    Vibrational Cp         22.922 [cal/(mol K)]       95.905 [J/(mol K)]       0.03652842 [mEh/K]
  Total Cp                 30.871 [cal/(mol K)]      129.163 [J/(mol K)]       0.04919566 [mEh/K]
  Correction Cp             0.000 [cal/(mol K)]        0.000 [J/(mol K)]       0.00000000 [mEh/K]

  ==> Thermochemistry Energy Analysis <==

  Raw electronic energy, E0
  Total E0, Electronic energy at well bottom at 0 [K]                 -379.77011152 [Eh]

  Zero-point energy, ZPE_vib = Sum_i nu_i / 2
    Electronic ZPE          0.000 [kcal/mol]        0.000 [kJ/mol]       0.00000000 [Eh]
    Translational ZPE       0.000 [kcal/mol]        0.000 [kJ/mol]       0.00000000 [Eh]
    Rotational ZPE          0.000 [kcal/mol]        0.000 [kJ/mol]       0.00000000 [Eh]
    Vibrational ZPE       120.281 [kcal/mol]      503.257 [kJ/mol]       0.19168059 [Eh]       42069.027 [cm^-1]
  Correction ZPE          120.281 [kcal/mol]      503.257 [kJ/mol]       0.19168059 [Eh]       42069.027 [cm^-1]
  Total ZPE, Electronic energy at 0 [K]                               -379.57843093 [Eh]

  Thermal Energy, E (includes ZPE)
    Electronic E            0.000 [kcal/mol]        0.000 [kJ/mol]       0.00000000 [Eh]
    Translational E         0.889 [kcal/mol]        3.718 [kJ/mol]       0.00141628 [Eh]
    Rotational E            0.889 [kcal/mol]        3.718 [kJ/mol]       0.00141628 [Eh]
    Vibrational E         123.027 [kcal/mol]      514.746 [kJ/mol]       0.19605637 [Eh]
  Correction E            124.805 [kcal/mol]      522.183 [kJ/mol]       0.19888892 [Eh]
  Total E, Electronic energy at  298.15 [K]                           -379.57122260 [Eh]

  Enthalpy, H_trans = E_trans + k_B * T
    Electronic H            0.000 [kcal/mol]        0.000 [kJ/mol]       0.00000000 [Eh]
    Translational H         1.481 [kcal/mol]        6.197 [kJ/mol]       0.00236046 [Eh]
    Rotational H            0.889 [kcal/mol]        3.718 [kJ/mol]       0.00141628 [Eh]
    Vibrational H         123.027 [kcal/mol]      514.746 [kJ/mol]       0.19605637 [Eh]
  Correction H            125.397 [kcal/mol]      524.662 [kJ/mol]       0.19983311 [Eh]
  Total H, Enthalpy at  298.15 [K]                                    -379.57027841 [Eh]

  Gibbs free energy, G = H - T * S
    Electronic G            0.000 [kcal/mol]        0.000 [kJ/mol]       0.00000000 [Eh]
    Translational G       -10.594 [kcal/mol]      -44.327 [kJ/mol]      -0.01688327 [Eh]
    Rotational G           -7.502 [kcal/mol]      -31.389 [kJ/mol]      -0.01195543 [Eh]
    Vibrational G         118.742 [kcal/mol]      496.818 [kJ/mol]       0.18922798 [Eh]
  Correction G            100.646 [kcal/mol]      421.102 [kJ/mol]       0.16038928 [Eh]
  Total G, Free enthalpy at  298.15 [K]                               -379.60972224 [Eh]

*** Psi4 exiting successfully. Buy a developer a beer!
