                               Psi4 1.7 release

  ==> Input File <==

--------------------------------------------------------------------------
molecule dvb {
    0 1
    C                  0.27867948   -1.36683162    0.00000000
    C                  1.32303041   -0.44173575    0.00000000
    C                  1.04434506    0.92484978    0.00000000
    C                 -0.27867948    1.36683162    0.00000000
    C                 -1.32303041    0.44173575    0.00000000
    C                 -1.04434506   -0.92484978    0.00000000
    H                  2.36595443   -0.79037726    0.00000000
    H                  1.86746094    1.65407997    0.00000000
    H                 -2.36595443    0.79037726    0.00000000
    H                 -1.86746094   -1.65407997    0.00000000
    C                 -0.58659169    2.87589931    0.00000000
    C                  0.36350188    3.80076420    0.00000000
    H                 -1.65647768    3.12394312    0.00000000
    H                  0.14429560    4.87693235    0.00000000
    H                  1.43338788    3.55272039    0.00000000
    C                  0.58659169   -2.87589931    0.00000000
    C                 -0.36350188   -3.80076420    0.00000000
    H                  1.65647768   -3.12394312    0.00000000
    H                 -0.14429560   -4.87693235    0.00000000
    H                 -1.43338788   -3.55272039    0.00000000
}

set {
    basis sto-3g
    scf_type direct
}

energy('bp86-d3zero')
--------------------------------------------------------------------------

    Molecular point group: c2h

    Geometry (in Angstrom), charge = 0, multiplicity = 1:

       Center              X                  Y                   Z               Mass
    ------------   -----------------  -----------------  -----------------  -----------------
         C            0.278679480000    -1.366831620000     0.000000000000    12.000000000000
         C            1.323030410000    -0.441735750000     0.000000000000    12.000000000000
         C            1.044345060000     0.924849780000     0.000000000000    12.000000000000
         C           -0.278679480000     1.366831620000     0.000000000000    12.000000000000
         C           -1.323030410000     0.441735750000     0.000000000000    12.000000000000
         C           -1.044345060000    -0.924849780000     0.000000000000    12.000000000000
         H            2.365954430000    -0.790377260000     0.000000000000     1.007825032230
         H            1.867460940000     1.654079970000     0.000000000000     1.007825032230
         H           -2.365954430000     0.790377260000     0.000000000000     1.007825032230
         H           -1.867460940000    -1.654079970000     0.000000000000     1.007825032230
         C           -0.586591690000     2.875899310000     0.000000000000    12.000000000000
         C            0.363501880000     3.800764200000     0.000000000000    12.000000000000
         H           -1.656477680000     3.123943120000     0.000000000000     1.007825032230
         H            0.144295600000     4.876932350000     0.000000000000     1.007825032230
         H            1.433387880000     3.552720390000     0.000000000000     1.007825032230
         C            0.586591690000    -2.875899310000     0.000000000000    12.000000000000
         C           -0.363501880000    -3.800764200000     0.000000000000    12.000000000000
         H            1.656477680000    -3.123943120000     0.000000000000     1.007825032230
         H           -0.144295600000    -4.876932350000     0.000000000000     1.007825032230
         H           -1.433387880000    -3.552720390000     0.000000000000     1.007825032230

  Charge       = 0
  Multiplicity = 1
  Basis Set: STO-3G
    Blend: STO-3G
  Basis Set: (STO-3G AUX)
    Blend: DEF2-UNIVERSAL-JKFIT

    Orbital Energies [Eh]
    ---------------------

    Doubly Occupied:

       1Bu    -9.743480     1Ag    -9.743419     2Bu    -9.732221
       2Ag    -9.732220     3Bu    -9.731733     3Ag    -9.731714
       4Bu    -9.730548     4Ag    -9.730435     5Bu    -9.716192
       5Ag    -9.716192     6Ag    -0.743692     6Bu    -0.683800
       7Ag    -0.651306     7Bu    -0.636215     8Bu    -0.603985
       8Ag    -0.526571     9Ag    -0.503241     9Bu    -0.476365
      10Ag    -0.458801    11Ag    -0.411974    10Bu    -0.389628
      11Bu    -0.362163    12Bu    -0.352355    12Ag    -0.349413
      13Bu    -0.329657    14Bu    -0.311826    13Ag    -0.304202
       1Au    -0.288524    15Bu    -0.263609    14Ag    -0.253626
      15Ag    -0.240681     1Bg    -0.227591     2Au    -0.182506
       2Bg    -0.168985     3Bg    -0.134286

  @RKS Final Energy:  -382.32749563584088

   => Energetics <=

    Nuclear Repulsion Energy =            450.0061380851071249
    One-Electron Energy =               -1408.7650347416611112
    Two-Electron Energy =                 634.3451208660781049
    DFT Exchange-Correlation Energy =     -57.8989999153649251
    Empirical Dispersion Energy =          -0.0147199300000000
    VV10 Nonlocal Energy =                  0.0000000000000000
    Total Energy =                       -382.3274956358408758
 Dipole X            :          0.0000000           -0.0000000           -0.0000000
 Dipole Y            :          0.0000000            0.0000000            0.0000000
 Dipole Z            :          0.0000000            0.0000000            0.0000000
 Magnitude           :                                                    0.0000000
*** Psi4 exiting successfully. Buy a developer a beer!
