                               Psi4 1.7 release

  ==> Input File <==

--------------------------------------------------------------------------
molecule dvb {
    1 2
    C    -1.4152533224   0.2302217854   0.0000000000
    C     1.4152533224  -0.2302217854   0.0000000000
    C    -0.4951331558   1.3144608674   0.0000000000
    C     0.4951331558  -1.3144608674   0.0000000000
    C     0.8894090436   1.0909493743   0.0000000000
    C    -0.8894090436  -1.0909493743   0.0000000000
    H    -0.8795511985   2.3437343748   0.0000000000
    H     0.8795511985  -2.3437343748   0.0000000000
    H     1.5779041557   1.9450061275   0.0000000000
    H    -1.5779041557  -1.9450061275   0.0000000000
    C     2.8845844962  -0.5210893778   0.0000000000
    C    -2.8845844962   0.5210893778   0.0000000000
    H     3.1403356810  -1.5919605685   0.0000000000
    H    -3.1403356810   1.5919605685   0.0000000000
    C     3.8800428103   0.3822535424   0.0000000000
    C    -3.8800428103  -0.3822535424   0.0000000000
    H     3.6946765858   1.4624389570   0.0000000000
    H    -3.6946765858  -1.4624389570   0.0000000000
    H     4.9316453546   0.0711049543   0.0000000000
    H    -4.9316453546  -0.0711049543   0.0000000000
}

set {
    basis sto-3g
    reference uhf
    print_basis true
    print_mos true
}

b3lyp_e, b3lyp_wfn = energy('b3lyp', return_wfn=True)
oeprop(b3lyp_wfn, 'MULLIKEN_CHARGES', 'LOWDIN_CHARGES', 'MULTIPOLES(5)')
--------------------------------------------------------------------------

    Molecular point group: c2h

    Geometry (in Angstrom), charge = 1, multiplicity = 2:

       Center              X                  Y                   Z               Mass
    ------------   -----------------  -----------------  -----------------  -----------------
         C           -1.415253322400     0.230221785400     0.000000000000    12.000000000000
         C            1.415253322400    -0.230221785400     0.000000000000    12.000000000000
         C           -0.495133155800     1.314460867400     0.000000000000    12.000000000000
         C            0.495133155800    -1.314460867400     0.000000000000    12.000000000000
         C            0.889409043600     1.090949374300     0.000000000000    12.000000000000
         C           -0.889409043600    -1.090949374300     0.000000000000    12.000000000000
         H           -0.879551198500     2.343734374800     0.000000000000     1.007825032230
         H            0.879551198500    -2.343734374800     0.000000000000     1.007825032230
         H            1.577904155700     1.945006127500     0.000000000000     1.007825032230
         H           -1.577904155700    -1.945006127500     0.000000000000     1.007825032230
         C            2.884584496200    -0.521089377800     0.000000000000    12.000000000000
         C           -2.884584496200     0.521089377800     0.000000000000    12.000000000000
         H            3.140335681000    -1.591960568500     0.000000000000     1.007825032230
         H           -3.140335681000     1.591960568500     0.000000000000     1.007825032230
         C            3.880042810300     0.382253542400     0.000000000000    12.000000000000
         C           -3.880042810300    -0.382253542400     0.000000000000    12.000000000000
         H            3.694676585800     1.462438957000     0.000000000000     1.007825032230
         H           -3.694676585800    -1.462438957000     0.000000000000     1.007825032230
         H            4.931645354600     0.071104954300     0.000000000000     1.007825032230
         H           -4.931645354600    -0.071104954300     0.000000000000     1.007825032230

  Charge       = 1
  Multiplicity = 2
  Basis Set: STO-3G
    Blend: STO-3G
  Basis Set: (STO-3G AUX)
    Blend: DEF2-UNIVERSAL-JKFIT

    Orbital Energies [Eh]
    ---------------------

    Alpha Occupied:

       1Bu   -10.253863     1Ag   -10.253813     2Bu   -10.219802
       2Ag   -10.219761     3Bu   -10.218327     3Ag   -10.218229
       4Bu   -10.217852     4Ag   -10.217849     5Bu   -10.215527
       5Ag   -10.215527     6Ag    -1.020773     6Bu    -0.961939
       7Ag    -0.921637     7Bu    -0.899268     8Bu    -0.876746
       8Ag    -0.787126     9Ag    -0.759880     9Bu    -0.722512
      10Ag    -0.703606    11Ag    -0.650480    10Bu    -0.634981
      11Bu    -0.604005    12Bu    -0.596096    12Ag    -0.587826
      13Bu    -0.568858    14Bu    -0.552253    13Ag    -0.537113
       1Au    -0.533641    15Bu    -0.501067    14Ag    -0.493314
      15Ag    -0.482727     1Bg    -0.473622     2Au    -0.417915
       2Bg    -0.394351     3Bg    -0.369714

    Alpha Virtual:

       3Au    -0.177450     4Au    -0.111529     4Bg    -0.094356
       5Au    -0.029621     5Bg     0.059961    16Ag     0.139703
      16Bu     0.148994    17Bu     0.179246    17Ag     0.196442
      18Ag     0.214667    18Bu     0.220337    19Ag     0.239662
      19Bu     0.240565    20Bu     0.262992    20Ag     0.285295
      21Ag     0.319779    21Bu     0.344272    22Ag     0.379979
      22Bu     0.397828    23Bu     0.425458    23Ag     0.438158
      24Ag     0.477751    24Bu     0.506042    25Ag     0.567613
      25Bu     0.581737

    Beta Occupied:

       1Bu   -10.250887     1Ag   -10.250841     2Bu   -10.219473
       2Ag   -10.219437     3Ag   -10.218697     3Bu   -10.218697
       4Bu   -10.218124     4Ag   -10.218021     5Ag   -10.211063
       5Bu   -10.211063     6Ag    -1.014719     6Bu    -0.954502
       7Ag    -0.913762     7Bu    -0.897620     8Bu    -0.864547
       8Ag    -0.781837     9Ag    -0.755817     9Bu    -0.718616
      10Ag    -0.700473    11Ag    -0.648282    10Bu    -0.632910
      11Bu    -0.601295    12Bu    -0.593264    12Ag    -0.584927
      13Bu    -0.568155    14Bu    -0.549304    13Ag    -0.535161
       1Au    -0.517370    15Bu    -0.499449    14Ag    -0.491809
      15Ag    -0.481158     1Bg    -0.450802     2Bg    -0.391168
       2Au    -0.388747

    Beta Virtual:

       3Bg    -0.300481     3Au    -0.147018     4Au    -0.103425
       4Bg    -0.073648     5Au    -0.008256     5Bg     0.076151
      16Ag     0.142155    16Bu     0.150869    17Bu     0.181146
      17Ag     0.197918    18Ag     0.220337    18Bu     0.225725
      19Bu     0.242013    19Ag     0.246314    20Bu     0.270005
      20Ag     0.290444    21Ag     0.323506    21Bu     0.347724
      22Ag     0.381476    22Bu     0.400008    23Bu     0.429780
      23Ag     0.440725    24Ag     0.481530    24Bu     0.511458
      25Ag     0.571351    25Bu     0.584877

    Final Occupation by Irrep:
             Ag    Bg    Au    Bu
    DOCC [    15,    2,    2,   15 ]
    SOCC [     0,    1,    0,    0 ]
    NA   [    15,    3,    2,   15 ]
    NB   [    15,    2,    2,   15 ]

  @DF-UKS Final Energy:  -382.08409782425895

   => Energetics <=

    Nuclear Repulsion Energy =            445.9369798670570049
    One-Electron Energy =               -1386.6343658429739207
    Two-Electron Energy =                 605.0060056889908537
    DFT Exchange-Correlation Energy =     -46.3927175373329135
    Empirical Dispersion Energy =           0.0000000000000000
    VV10 Nonlocal Energy =                  0.0000000000000000
    Total Energy =                       -382.0840978242589472

  UHF NO Occupations:
  HONO-2 :    2 Bg 1.9974737
  HONO-1 :    2 Au 1.9899397
  HONO-0 :    3 Bg 1.0000000
  LUNO+0 :    3 Au 0.0100603
  LUNO+1 :    4 Bg 0.0025263
  LUNO+2 :    4 Au 0.0008988
  LUNO+3 :   16 Ag 0.0000999

Computation Completed

Properties will be evaluated at   0.000000,   0.000000,   0.000000 [a0]

Properties computed using the SCF density matrix

 Multipole Moments:

 ------------------------------------------------------------------------------------
     Multipole            Electronic (a.u.)      Nuclear  (a.u.)        Total (a.u.)
 ------------------------------------------------------------------------------------

 L = 1.  Multiply by 2.5417464519 to convert [e a0] to [Debye]
 Dipole X            :          0.0000000            0.0000000            0.0000000
 Dipole Y            :          0.0000000            0.0000000            0.0000000
 Dipole Z            :          0.0000000            0.0000000            0.0000000
 Magnitude           :                                                    0.0000000

 ------------------------------------------------------------------------------------

  ==> Alpha-Spin Molecular Orbitals <==

                            1            2            3            4            5

 1    C1 s0         0.7002685    0.7002922    0.0098972    0.0062486    0.0057916
 2    C1 s0         0.0312628    0.0310686   -0.0075682   -0.0041113   -0.0046840
 3    C1 p0         0.0000000    0.0000000    0.0000000    0.0000000    0.0000000
 4    C1 p+1        0.0010238    0.0007504   -0.0024033   -0.0008602   -0.0025930
 5    C1 p-1       -0.0000442    0.0000057    0.0032254    0.0048217   -0.0040423
 6    C2 s0        -0.7002685    0.7002922   -0.0098972    0.0062486   -0.0057916
 7    C2 s0        -0.0312628    0.0310686    0.0075682   -0.0041113    0.0046840
 8    C2 p0         0.0000000    0.0000000    0.0000000    0.0000000    0.0000000
 9    C2 p+1        0.0010238   -0.0007504   -0.0024033    0.0008602   -0.0025930
 10   C2 p-1       -0.0000442   -0.0000057    0.0032254   -0.0048217   -0.0040423
 11   C3 s0        -0.0070210   -0.0074442    0.1540561   -0.1783384    0.6831406
 12   C3 s0        -0.0071257   -0.0065325    0.0134257   -0.0141014    0.0287708
 13   C3 p0         0.0000000    0.0000000    0.0000000    0.0000000    0.0000000
 14   C3 p+1        0.0026965    0.0029172    0.0043554   -0.0043203   -0.0004672
 15   C3 p-1        0.0035409    0.0033641   -0.0010579    0.0009888   -0.0009084
 16   C4 s0         0.0070210   -0.0074442   -0.1540561   -0.1783384   -0.6831406
 17   C4 s0         0.0071257   -0.0065325   -0.0134257   -0.0141014   -0.0287708
 18   C4 p0         0.0000000    0.0000000    0.0000000    0.0000000    0.0000000
 19   C4 p+1        0.0026965   -0.0029172    0.0043554    0.0043203   -0.0004672
 20   C4 p-1        0.0035409   -0.0033641   -0.0010579   -0.0009888   -0.0009084
 21   C5 s0         0.0073473   -0.0077283   -0.6830377    0.6771294    0.1550531
 22   C5 s0         0.0070946   -0.0064849   -0.0317795    0.0314760    0.0002692
 23   C5 p0         0.0000000    0.0000000    0.0000000    0.0000000    0.0000000
 24   C5 p+1        0.0014273   -0.0017043    0.0017634   -0.0017149    0.0041062
 25   C5 p-1       -0.0041883    0.0040716    0.0007430   -0.0004301   -0.0007567
 26   C6 s0        -0.0073473   -0.0077283    0.6830377    0.6771294   -0.1550531
 27   C6 s0        -0.0070946   -0.0064849    0.0317795    0.0314760   -0.0002692
 28   C6 p0         0.0000000    0.0000000    0.0000000    0.0000000    0.0000000
 29   C6 p+1        0.0014273    0.0017043    0.0017634    0.0017149    0.0041062
 30   C6 p-1       -0.0041883   -0.0040716    0.0007430    0.0004301   -0.0007567
 31   H7 s0         0.0002229    0.0001108   -0.0015543    0.0016535   -0.0060428
 32   H8 s0        -0.0002229    0.0001108    0.0015543    0.0016535    0.0060428
 33   H9 s0        -0.0002182    0.0001087    0.0061626   -0.0061747   -0.0012092
 34   H10 s0        0.0002182    0.0001087   -0.0061626   -0.0061747    0.0012092
 35   C11 s0        0.0088366   -0.0089456    0.0017098   -0.0040305    0.0136533
 36   C11 s0        0.0058776   -0.0059397   -0.0001606   -0.0001058    0.0004580
 37   C11 p0        0.0000000    0.0000000    0.0000000    0.0000000    0.0000000
 38   C11 p+1      -0.0039859    0.0040287    0.0000532    0.0000512    0.0000421
 39   C11 p-1       0.0008653   -0.0008736   -0.0000668    0.0001165    0.0000053
 40   C12 s0       -0.0088366   -0.0089456   -0.0017098   -0.0040305   -0.0136533
 41   C12 s0       -0.0058776   -0.0059397    0.0001606   -0.0001058   -0.0004580
 42   C12 p0        0.0000000    0.0000000    0.0000000    0.0000000    0.0000000
 43   C12 p+1      -0.0039859   -0.0040287    0.0000532   -0.0000512    0.0000421
 44   C12 p-1       0.0008653    0.0008736   -0.0000668   -0.0001165    0.0000053
 45   H13 s0       -0.0001536    0.0001616    0.0000268   -0.0000124   -0.0000776
 46   H14 s0        0.0001536    0.0001616   -0.0000268   -0.0000124    0.0000776
 47   C15 s0       -0.0000366    0.0000436    0.0027195   -0.0020436   -0.0004487
 48   C15 s0       -0.0002729    0.0002730    0.0001915   -0.0001320   -0.0001190
 49   C15 p0        0.0000000    0.0000000    0.0000000    0.0000000    0.0000000
 50   C15 p+1       0.0001898   -0.0001947   -0.0000687    0.0000376    0.0000410
 51   C15 p-1      -0.0000832    0.0000837    0.0000516   -0.0000528    0.0000418
 52   C16 s0        0.0000366    0.0000436   -0.0027195   -0.0020436    0.0004487
 53   C16 s0        0.0002729    0.0002730   -0.0001915   -0.0001320    0.0001190
 54   C16 p0        0.0000000    0.0000000    0.0000000    0.0000000    0.0000000
 55   C16 p+1       0.0001898    0.0001947   -0.0000687   -0.0000376    0.0000410
 56   C16 p-1      -0.0000832   -0.0000837    0.0000516    0.0000528    0.0000418
 57   H17 s0        0.0001406   -0.0001331   -0.0001926    0.0001908    0.0000257
 58   H18 s0       -0.0001406   -0.0001331    0.0001926    0.0001908   -0.0000257
 59   H19 s0        0.0000238   -0.0000229   -0.0000026    0.0000017    0.0000039
 60   H20 s0       -0.0000238   -0.0000229    0.0000026    0.0000017   -0.0000039

            Ene   -10.2538633  -10.2538129  -10.2198021  -10.2197609  -10.2183269
            Sym            Bu           Ag           Bu           Ag           Bu
            Occ             1            1            1            1            1

                            6            7            8            9           10

 1    C1 s0         0.0095960    0.0099914    0.0108113    0.0008575    0.0009036
 2    C1 s0        -0.0066888   -0.0051825   -0.0056320   -0.0002473   -0.0002698
 3    C1 p0         0.0000000    0.0000000    0.0000000    0.0000000    0.0000000
 4    C1 p+1       -0.0034794    0.0040078    0.0037568    0.0002436    0.0002332
 5    C1 p-1       -0.0021375   -0.0006964   -0.0007641   -0.0000662   -0.0000730
 6    C2 s0         0.0095960   -0.0099914    0.0108113   -0.0008575    0.0009036
 7    C2 s0        -0.0066888    0.0051825   -0.0056320    0.0002473   -0.0002698
 8    C2 p0         0.0000000    0.0000000    0.0000000    0.0000000    0.0000000
 9    C2 p+1        0.0034794    0.0040078   -0.0037568    0.0002436   -0.0002332
 10   C2 p-1        0.0021375   -0.0006964    0.0007641   -0.0000662    0.0000730
 11   C3 s0         0.6752949    0.0135461    0.0531202    0.0013379    0.0037273
 12   C3 s0         0.0280708    0.0006884    0.0021969    0.0000713    0.0000557
 13   C3 p0         0.0000000    0.0000000    0.0000000    0.0000000    0.0000000
 14   C3 p+1       -0.0007191   -0.0000269   -0.0001558    0.0000918    0.0000071
 15   C3 p-1       -0.0005397   -0.0000012    0.0000680    0.0000033    0.0000237
 16   C4 s0         0.6752949   -0.0135461    0.0531202   -0.0013379    0.0037273
 17   C4 s0         0.0280708   -0.0006884    0.0021969   -0.0000713    0.0000557
 18   C4 p0         0.0000000    0.0000000    0.0000000    0.0000000    0.0000000
 19   C4 p+1        0.0007191   -0.0000269    0.0001558    0.0000918   -0.0000071
 20   C4 p-1        0.0005397   -0.0000012   -0.0000680    0.0000033   -0.0000237
 21   C5 s0         0.1783675    0.0016910    0.0179460   -0.0026383    0.0034640
 22   C5 s0         0.0016200   -0.0002252    0.0003983   -0.0000895    0.0000568
 23   C5 p0         0.0000000    0.0000000    0.0000000    0.0000000    0.0000000
 24   C5 p+1        0.0040785    0.0000273    0.0004424    0.0001119   -0.0000636
 25   C5 p-1       -0.0007333   -0.0000336    0.0000227   -0.0000068    0.0000046
 26   C6 s0         0.1783675   -0.0016910    0.0179460    0.0026383    0.0034640
 27   C6 s0         0.0016200    0.0002252    0.0003983    0.0000895    0.0000568
 28   C6 p0         0.0000000    0.0000000    0.0000000    0.0000000    0.0000000
 29   C6 p+1       -0.0040785    0.0000273   -0.0004424    0.0001119    0.0000636
 30   C6 p-1        0.0007333   -0.0000336   -0.0000227   -0.0000068   -0.0000046
 31   H7 s0        -0.0061012   -0.0001299   -0.0005057   -0.0000227   -0.0000472
 32   H8 s0        -0.0061012    0.0001299   -0.0005057    0.0000227   -0.0000472
 33   H9 s0        -0.0015729    0.0001351   -0.0003271   -0.0000737    0.0000656
 34   H10 s0       -0.0015729   -0.0001351   -0.0003271    0.0000737    0.0000656
 35   C11 s0       -0.0561772   -0.6976755    0.6955254   -0.0610007    0.0611022
 36   C11 s0       -0.0023686   -0.0312700    0.0311697    0.0046778   -0.0046741
 37   C11 p0        0.0000000    0.0000000    0.0000000    0.0000000    0.0000000
 38   C11 p+1      -0.0000335   -0.0012351    0.0012488    0.0033313   -0.0033293
 39   C11 p-1      -0.0000996   -0.0011668    0.0011613    0.0030708   -0.0030705
 40   C12 s0       -0.0561772    0.6976755    0.6955254    0.0610007    0.0611022
 41   C12 s0       -0.0023686    0.0312700    0.0311697   -0.0046778   -0.0046741
 42   C12 p0        0.0000000    0.0000000    0.0000000    0.0000000    0.0000000
 43   C12 p+1       0.0000335   -0.0012351   -0.0012488    0.0033313    0.0033293
 44   C12 p-1       0.0000996   -0.0011668   -0.0011613    0.0030708    0.0030705
 45   H13 s0        0.0004255    0.0063229   -0.0063093    0.0004265   -0.0004281
 46   H14 s0        0.0004255   -0.0063229   -0.0063093   -0.0004265   -0.0004281
 47   C15 s0        0.0003781    0.0601304   -0.0603996   -0.6979241    0.6979033
 48   C15 s0        0.0005298    0.0099274   -0.0099223   -0.0302716    0.0302691
 49   C15 p0        0.0000000    0.0000000    0.0000000    0.0000000    0.0000000
 50   C15 p+1      -0.0001904   -0.0035303    0.0035265    0.0008343   -0.0008332
 51   C15 p-1      -0.0002555   -0.0031213    0.0031115    0.0007629   -0.0007623
 52   C16 s0        0.0003781   -0.0601304   -0.0603996    0.6979241    0.6979033
 53   C16 s0        0.0005298   -0.0099274   -0.0099223    0.0302716    0.0302691
 54   C16 p0        0.0000000    0.0000000    0.0000000    0.0000000    0.0000000
 55   C16 p+1       0.0001904   -0.0035303   -0.0035265    0.0008343    0.0008332
 56   C16 p-1       0.0002555   -0.0031213   -0.0031115    0.0007629    0.0007623
 57   H17 s0        0.0000034   -0.0006677    0.0006724    0.0063141   -0.0063139
 58   H18 s0        0.0000034    0.0006677    0.0006724   -0.0063141   -0.0063139
 59   H19 s0       -0.0000338   -0.0006838    0.0006842    0.0062984   -0.0062983
 60   H20 s0       -0.0000338    0.0006838    0.0006842   -0.0062984   -0.0062983

            Ene   -10.2182290  -10.2178522  -10.2178486  -10.2155273  -10.2155271
            Sym            Ag           Bu           Ag           Bu           Ag
            Occ             1            1            1            1            1

                           11           12           13           14           15

 1    C1 s0         0.1123599    0.1122957    0.0052707    0.0174098    0.0954049
 2    C1 s0        -0.2906205   -0.3021438   -0.0173288   -0.0482785   -0.2668814
 3    C1 p0         0.0000000    0.0000000    0.0000000    0.0000000    0.0000000
 4    C1 p+1       -0.0478429    0.0254852    0.1005022   -0.0277477   -0.0670658
 5    C1 p-1        0.0075958   -0.0008077   -0.0090104   -0.1352807    0.0267015
 6    C2 s0         0.1123599   -0.1122957    0.0052707   -0.0174098   -0.0954049
 7    C2 s0        -0.2906205    0.3021438   -0.0173288    0.0482785    0.2668814
 8    C2 p0         0.0000000    0.0000000    0.0000000    0.0000000    0.0000000
 9    C2 p+1        0.0478429    0.0254852   -0.1005022   -0.0277477   -0.0670658
 10   C2 p-1       -0.0075958   -0.0008077    0.0090104   -0.1352807    0.0267015
 11   C3 s0         0.0956290    0.0408063   -0.0439204    0.1345549    0.0323419
 12   C3 s0        -0.2392050   -0.1057574    0.1147704   -0.3639191   -0.0882885
 13   C3 p0         0.0000000    0.0000000    0.0000000    0.0000000    0.0000000
 14   C3 p+1       -0.0122259    0.0621075    0.0345388   -0.0512381    0.0874730
 15   C3 p-1        0.0611326    0.0334824   -0.0200189    0.0114058    0.0406849
 16   C4 s0         0.0956290   -0.0408063   -0.0439204   -0.1345549   -0.0323419
 17   C4 s0        -0.2392050    0.1057574    0.1147704    0.3639191    0.0882885
 18   C4 p0         0.0000000    0.0000000    0.0000000    0.0000000    0.0000000
 19   C4 p+1        0.0122259    0.0621075   -0.0345388   -0.0512381    0.0874730
 20   C4 p-1       -0.0611326    0.0334824    0.0200189    0.0114058    0.0406849
 21   C5 s0         0.0961623   -0.0467032   -0.0388523    0.1182844   -0.0748828
 22   C5 s0        -0.2411883    0.1218365    0.1011891   -0.3204602    0.2052360
 23   C5 p0         0.0000000    0.0000000    0.0000000    0.0000000    0.0000000
 24   C5 p+1        0.0302165    0.0483070   -0.0468708    0.0692449    0.0391985
 25   C5 p-1        0.0543580   -0.0515225   -0.0060742   -0.0256792   -0.0573589
 26   C6 s0         0.0961623    0.0467032   -0.0388523   -0.1182844    0.0748828
 27   C6 s0        -0.2411883   -0.1218365    0.1011891    0.3204602   -0.2052360
 28   C6 p0         0.0000000    0.0000000    0.0000000    0.0000000    0.0000000
 29   C6 p+1       -0.0302165    0.0483070    0.0468708    0.0692449    0.0391985
 30   C6 p-1       -0.0543580   -0.0515225    0.0060742   -0.0256792   -0.0573589
 31   H7 s0        -0.0373806   -0.0235143    0.0191124   -0.0869805   -0.0209009
 32   H8 s0        -0.0373806    0.0235143    0.0191124    0.0869805    0.0209009
 33   H9 s0        -0.0385951    0.0285495    0.0129941   -0.0788102    0.0469484
 34   H10 s0       -0.0385951   -0.0285495    0.0129941    0.0788102   -0.0469484
 35   C11 s0        0.0465508   -0.1081220    0.1194876    0.0022896    0.0615656
 36   C11 s0       -0.1180673    0.2789220   -0.3123645   -0.0051365   -0.1622463
 37   C11 p0        0.0000000    0.0000000    0.0000000    0.0000000    0.0000000
 38   C11 p+1       0.0289975   -0.0131911   -0.0579059   -0.0232513   -0.1240496
 39   C11 p-1      -0.0147218    0.0399999   -0.0562383   -0.0246727   -0.0465835
 40   C12 s0        0.0465508    0.1081220    0.1194876   -0.0022896   -0.0615656
 41   C12 s0       -0.1180673   -0.2789220   -0.3123645    0.0051365    0.1622463
 42   C12 p0        0.0000000    0.0000000    0.0000000    0.0000000    0.0000000
 43   C12 p+1      -0.0289975   -0.0131911    0.0579059   -0.0232513   -0.1240496
 44   C12 p-1       0.0147218    0.0399999    0.0562383   -0.0246727   -0.0465835
 45   H13 s0       -0.0203568    0.0542288   -0.0656822    0.0070432   -0.0380177
 46   H14 s0       -0.0203568   -0.0542288   -0.0656822   -0.0070432    0.0380177
 47   C15 s0        0.0227886   -0.0762464    0.1201376    0.0184921    0.1138605
 48   C15 s0       -0.0588051    0.2008895   -0.3225048   -0.0495846   -0.3135683
 49   C15 p0        0.0000000    0.0000000    0.0000000    0.0000000    0.0000000
 50   C15 p+1       0.0204139   -0.0533701    0.0636112    0.0089995    0.0330772
 51   C15 p-1       0.0121261   -0.0374061    0.0536396    0.0009323    0.0425484
 52   C16 s0        0.0227886    0.0762464    0.1201376   -0.0184921   -0.1138605
 53   C16 s0       -0.0588051   -0.2008895   -0.3225048    0.0495846    0.3135683
 54   C16 p0        0.0000000    0.0000000    0.0000000    0.0000000    0.0000000
 55   C16 p+1      -0.0204139   -0.0533701   -0.0636112    0.0089995    0.0330772
 56   C16 p-1      -0.0121261   -0.0374061   -0.0536396    0.0009323    0.0425484
 57   H17 s0       -0.0111846    0.0400280   -0.0669198   -0.0149415   -0.0690574
 58   H18 s0       -0.0111846   -0.0400280   -0.0669198    0.0149415    0.0690574
 59   H19 s0       -0.0080085    0.0338531   -0.0635373   -0.0099858   -0.0743833
 60   H20 s0       -0.0080085   -0.0338531   -0.0635373    0.0099858    0.0743833

            Ene    -1.0207731   -0.9619393   -0.9216371   -0.8992681   -0.8767456
            Sym            Ag           Bu           Ag           Bu           Bu
            Occ             1            1            1            1            1

                           16           17           18           19           20

 1    C1 s0         0.0750386    0.0527868    0.0087791    0.0494111    0.0307371
 2    C1 s0        -0.2240775   -0.1601453   -0.0248289   -0.1508168   -0.1037164
 3    C1 p0         0.0000000    0.0000000    0.0000000    0.0000000    0.0000000
 4    C1 p+1        0.0799467    0.0731995   -0.1613099   -0.1622756    0.1265843
 5    C1 p-1       -0.1324260    0.2043415    0.0624338   -0.0099051   -0.0531217
 6    C2 s0         0.0750386    0.0527868   -0.0087791    0.0494111    0.0307371
 7    C2 s0        -0.2240775   -0.1601453    0.0248289   -0.1508168   -0.1037164
 8    C2 p0         0.0000000    0.0000000    0.0000000    0.0000000    0.0000000
 9    C2 p+1       -0.0799467   -0.0731995   -0.1613099    0.1622756   -0.1265843
 10   C2 p-1        0.1324260   -0.2043415    0.0624338    0.0099051    0.0531217
 11   C3 s0         0.0005810   -0.1130731    0.0500411   -0.0158536    0.0165077
 12   C3 s0        -0.0028674    0.3343547   -0.1535960    0.0545754   -0.0622365
 13   C3 p0         0.0000000    0.0000000    0.0000000    0.0000000    0.0000000
 14   C3 p+1        0.1708077   -0.0370002   -0.0005719    0.0845558    0.1357628
 15   C3 p-1        0.0307185    0.0575174    0.0129443    0.1904585   -0.1321544
 16   C4 s0         0.0005810   -0.1130731   -0.0500411   -0.0158536    0.0165077
 17   C4 s0        -0.0028674    0.3343547    0.1535960    0.0545754   -0.0622365
 18   C4 p0         0.0000000    0.0000000    0.0000000    0.0000000    0.0000000
 19   C4 p+1       -0.1708077    0.0370002   -0.0005719   -0.0845558   -0.1357628
 20   C4 p-1       -0.0307185   -0.0575174    0.0129443   -0.1904585    0.1321544
 21   C5 s0        -0.0866423    0.0570174   -0.0298840   -0.0528784   -0.0153329
 22   C5 s0         0.2490806   -0.1698916    0.0914953    0.1707189    0.0421359
 23   C5 p0         0.0000000    0.0000000    0.0000000    0.0000000    0.0000000
 24   C5 p+1       -0.0321733   -0.1788532    0.0786961    0.0287570   -0.1315203
 25   C5 p-1        0.0574749    0.0886576   -0.0432251    0.2035173   -0.0916867
 26   C6 s0        -0.0866423    0.0570174    0.0298840   -0.0528784   -0.0153329
 27   C6 s0         0.2490806   -0.1698916   -0.0914953    0.1707189    0.0421359
 28   C6 p0         0.0000000    0.0000000    0.0000000    0.0000000    0.0000000
 29   C6 p+1        0.0321733    0.1788532    0.0786961   -0.0287570    0.1315203
 30   C6 p-1       -0.0574749   -0.0886576   -0.0432251   -0.2035173    0.0916867
 31   H7 s0        -0.0157850    0.1442389   -0.0420714    0.1023808   -0.1223724
 32   H8 s0        -0.0157850    0.1442389    0.0420714    0.1023808   -0.1223724
 33   H9 s0         0.0966587   -0.0771565    0.0475557    0.1547941   -0.0883811
 34   H10 s0        0.0966587   -0.0771565   -0.0475557    0.1547941   -0.0883811
 35   C11 s0        0.0491200    0.0052549    0.1000427   -0.0600675   -0.0491035
 36   C11 s0       -0.1481833   -0.0174647   -0.3092573    0.1855698    0.1580351
 37   C11 p0        0.0000000    0.0000000    0.0000000    0.0000000    0.0000000
 38   C11 p+1       0.1368901    0.0811479    0.0617826   -0.0170287    0.1822200
 39   C11 p-1       0.0758696   -0.0424428    0.1097721   -0.0610220   -0.1081547
 40   C12 s0        0.0491200    0.0052549   -0.1000427   -0.0600675   -0.0491035
 41   C12 s0       -0.1481833   -0.0174647    0.3092573    0.1855698    0.1580351
 42   C12 p0        0.0000000    0.0000000    0.0000000    0.0000000    0.0000000
 43   C12 p+1      -0.1368901   -0.0811479    0.0617826    0.0170287   -0.1822200
 44   C12 p-1      -0.0758696    0.0424428    0.1097721    0.0610220    0.1081547
 45   H13 s0       -0.0656752    0.0280631   -0.1528287    0.0999228    0.1458774
 46   H14 s0       -0.0656752    0.0280631    0.1528287    0.0999228    0.1458774
 47   C15 s0       -0.0813241   -0.0402355   -0.0849743    0.0549868    0.0245798
 48   C15 s0        0.2389618    0.1225196    0.2683727   -0.1774758   -0.0912133
 49   C15 p0        0.0000000    0.0000000    0.0000000    0.0000000    0.0000000
 50   C15 p+1       0.0264487    0.0416151    0.0878607   -0.0776800   -0.0133159
 51   C15 p-1       0.0250662   -0.0169302    0.1174133   -0.0741916   -0.2282589
 52   C16 s0       -0.0813241   -0.0402355    0.0849743    0.0549868    0.0245798
 53   C16 s0        0.2389618    0.1225196   -0.2683727   -0.1774758   -0.0912133
 54   C16 p0        0.0000000    0.0000000    0.0000000    0.0000000    0.0000000
 55   C16 p+1      -0.0264487   -0.0416151    0.0878607    0.0776800    0.0133159
 56   C16 p-1      -0.0250662    0.0169302    0.1174133    0.0741916    0.2282589
 57   H17 s0        0.0861270    0.0222253    0.1472483   -0.0878053   -0.1779338
 58   H18 s0        0.0861270    0.0222253   -0.1472483   -0.0878053   -0.1779338
 59   H19 s0        0.0795892    0.0573806    0.1145045   -0.0879650   -0.0037372
 60   H20 s0        0.0795892    0.0573806   -0.1145045   -0.0879650   -0.0037372

            Ene    -0.7871257   -0.7598795   -0.7225123   -0.7036056   -0.6504801
            Sym            Ag           Ag           Bu           Ag           Ag
            Occ             1            1            1            1            1

                           21           22           23           24           25

 1    C1 s0         0.0160627    0.0501788    0.0494040    0.0176155    0.0036507
 2    C1 s0        -0.0565638   -0.1752403   -0.1731553   -0.0601251   -0.0130677
 3    C1 p0         0.0000000    0.0000000    0.0000000    0.0000000    0.0000000
 4    C1 p+1        0.1475606    0.0721787   -0.1549270    0.0021188   -0.1035479
 5    C1 p-1        0.1739138   -0.1814473    0.1445003   -0.0108410   -0.1020745
 6    C2 s0        -0.0160627   -0.0501788   -0.0494040    0.0176155   -0.0036507
 7    C2 s0         0.0565638    0.1752403    0.1731553   -0.0601251    0.0130677
 8    C2 p0         0.0000000    0.0000000    0.0000000    0.0000000    0.0000000
 9    C2 p+1        0.1475606    0.0721787   -0.1549270   -0.0021188   -0.1035479
 10   C2 p-1        0.1739138   -0.1814473    0.1445003    0.0108410   -0.1020745
 11   C3 s0        -0.0159267   -0.0485167   -0.0267264   -0.0245598    0.0212917
 12   C3 s0         0.0544220    0.1665861    0.0959902    0.0830769   -0.0656834
 13   C3 p0         0.0000000    0.0000000    0.0000000    0.0000000    0.0000000
 14   C3 p+1       -0.2150182    0.0894209   -0.0799293    0.0706663   -0.1197571
 15   C3 p-1       -0.0238916    0.1835391    0.1148536   -0.0069341    0.3345300
 16   C4 s0         0.0159267    0.0485167    0.0267264   -0.0245598   -0.0212917

 Dipole X            :          0.0000000            0.0000000            0.0000000
 Dipole Y            :          0.0000000            0.0000000            0.0000000
 Dipole Z            :          0.0000000            0.0000000            0.0000000
 Magnitude           :                                                    0.0000000

  Lowdin Charges: (a.u.)
   Center  Symbol    Alpha    Beta     Spin     Total
       1     C     3.06168  2.85841  0.20326  0.07991
       2     C     3.06168  2.85841  0.20326  0.07991
       3     C     3.01085  2.98978  0.02107 -0.00064
       4     C     3.01085  2.98978  0.02107 -0.00064
       5     C     3.01585  2.98609  0.02977 -0.00194
       6     C     3.01585  2.98609  0.02977 -0.00194
       7     H     0.45946  0.46036 -0.00090  0.08017
       8     H     0.45946  0.46036 -0.00090  0.08017
       9     H     0.46075  0.46191 -0.00116  0.07734
      10     H     0.46075  0.46191 -0.00116  0.07734
      11     C     2.97678  3.02149 -0.04471  0.00173
      12     C     2.97678  3.02149 -0.04471  0.00173
      13     H     0.46205  0.46048  0.00157  0.07747
      14     H     0.46205  0.46048  0.00157  0.07747
      15     C     3.14896  2.83660  0.31236  0.01444
      16     C     3.14896  2.83660  0.31236  0.01444
      17     H     0.45533  0.46579 -0.01045  0.07888
      18     H     0.45533  0.46579 -0.01045  0.07888
      19     H     0.44828  0.45909 -0.01081  0.09264
      20     H     0.44828  0.45909 -0.01081  0.09264

  Total alpha = 35.00000, Total beta = 34.00000, Total charge =  1.00000

*** Psi4 exiting successfully. Buy a developer a beer!
