                               Psi4 1.7 release

  ==> Input File <==

--------------------------------------------------------------------------
molecule water {
0 1
O
H 1 0.99
H 1 0.99 2 106.0
}

set {
    basis sto-3g
}

energy('ccsd(t)')
--------------------------------------------------------------------------

    Molecular point group: c2v

    Geometry (in Angstrom), charge = 0, multiplicity = 1:

       Center              X                  Y                   Z               Mass
    ------------   -----------------  -----------------  -----------------  -----------------
         O            0.000000000000     0.000000000000    -0.066678531538    15.994914619570
         H            0.000000000000    -0.790649154947     0.529118341382     1.007825032230
         H            0.000000000000     0.790649154947     0.529118341382     1.007825032230

  Charge       = 0
  Multiplicity = 1
  Basis Set: STO-3G
    Blend: STO-3G

    Orbital Energies [Eh]
    ---------------------

    Doubly Occupied:

       1A1   -20.243755     2A1    -1.250645     1B2    -0.603166
       3A1    -0.445470     1B1    -0.388215

  @RHF Final Energy:   -74.96432876674535

   => Energetics <=

    Nuclear Repulsion Energy =              8.8870062608098763
    One-Electron Energy =                -121.8401691925630956
    Two-Electron Energy =                  37.9888341650078658
    Total Energy =                        -74.9643287667453535
 Dipole X            :          0.0000000            0.0000000            0.0000000
 Dipole Y            :          0.0000000           -0.0000000           -0.0000000
 Dipole Z            :         -0.3333398            0.9917442            0.6584044
 Magnitude           :                                                    0.6584044
      * MP2 total energy                      =  -75.002378705145773
      * CCSD total energy                     =  -75.017758177656503
      * CCSD(T) total energy                  =  -75.017834880709472
*** Psi4 exiting successfully. Buy a developer a beer!
