                               Psi4 1.7 release

  ==> Input File <==

--------------------------------------------------------------------------
molecule water {
0 1
O
H 1 0.99
H 1 0.99 2 106.0
}

set {
    basis sto-3g
}

energy('mp2')
--------------------------------------------------------------------------

    Molecular point group: c2v

    Geometry (in Angstrom), charge = 0, multiplicity = 1:

       Center              X                  Y                   Z               Mass
    ------------   -----------------  -----------------  -----------------  -----------------
         O            0.000000000000     0.000000000000    -0.066678531538    15.994914619570
         H            0.000000000000    -0.790649154947     0.529118341382     1.007825032230
         H            0.000000000000     0.790649154947     0.529118341382     1.007825032230

  Charge       = 0
  Multiplicity = 1
  Basis Set: STO-3G
    Blend: STO-3G
  Basis Set: (STO-3G AUX)
    Blend: DEF2-UNIVERSAL-JKFIT

    Orbital Energies [Eh]
    ---------------------

    Doubly Occupied:

       1A1   -20.243976     2A1    -1.250662     1B2    -0.603166
       3A1    -0.445470     1B1    -0.388215

  @DF-RHF Final Energy:   -74.96441713226277

   => Energetics <=

    Nuclear Repulsion Energy =              8.8870062608098763
    One-Electron Energy =                -121.8398687308066997
    Two-Electron Energy =                  37.9884453377340705
    Total Energy =                        -74.9644171322627528
 Dipole X            :          0.0000000            0.0000000            0.0000000
 Dipole Y            :          0.0000000            0.0000000            0.0000000
 Dipole Z            :         -0.3334523            0.9917442            0.6582919
 Magnitude           :                                                    0.6582919
  Basis Set: (STO-3G AUX)
    Blend: DEF2-SVP-RI
	 Reference Energy          =     -74.9644171322627670 [Eh]
	 Singles Energy            =      -0.0000000000000000 [Eh]
	 Same-Spin Energy          =      -0.0021861282758613 [Eh]
	 Opposite-Spin Energy      =      -0.0358524302098530 [Eh]
	 Correlation Energy        =      -0.0380385584857143 [Eh]
	 Total Energy              =     -75.0024556907484765 [Eh]

	 ================> DF-SCS-MP2 Energies <==================
	-----------------------------------------------------------
	 SCS Same-Spin Scale       =       0.3333333333333333 [-]
	 SCS Opposite-Spin Scale   =       1.2000000000000000 [-]
	 SCS Same-Spin Energy      =      -0.0007287094252871 [Eh]
	 SCS Opposite-Spin Energy  =      -0.0430229162518236 [Eh]
	 SCS Correlation Energy    =      -0.0437516256771107 [Eh]
	 SCS Total Energy          =     -75.0081687579398846 [Eh]
	-----------------------------------------------------------

*** Psi4 exiting successfully. Buy a developer a beer!
