 Gaussian 16, Revision C.01,
 Gaussian 16:  ES64L-G16RevC.01  3-Jul-2019

 ----------------------------------------------------------------------
 #p EOMCCSD=(nstates=10, root=1, Singlets, Triplets) STO-3G SCF=(DIIS)
 Symmetry=(Tight) Population=(Regular) Density=(SCF)
 ----------------------------------------------------------------------

 dvb_eomccsd_Excited_States_Post_HF_S_1___S_2___T_1____T_2__EOM_CCSD_Ga
 s_Phase_Pople_Basis_Sets_STO_3G
 ----------------------------------------------------------------------
 Symbolic Z-matrix:
 Charge =  0 Multiplicity = 1

                         Standard orientation:
 ---------------------------------------------------------------------
 Center     Atomic      Atomic             Coordinates (Angstroms)
 Number     Number       Type             X           Y           Z
 ---------------------------------------------------------------------
      1          6           0        0.269440   -1.410120    0.000000
      2          6           0       -1.064790   -0.920660    0.000000
      3          6           0       -1.325390    0.457060   -0.000000
      4          6           0       -0.269440    1.410120    0.000000
      5          6           0        1.064790    0.920660    0.000000
      6          1           0       -1.904470   -1.627520    0.000000
      7          1           0       -2.364760    0.813040   -0.000000
      8          1           0        1.904470    1.627520    0.000000
      9          6           0       -0.603690    2.869960   -0.000000
     10          6           0        0.269440    3.892070   -0.000000
     11          1           0        1.355180    3.742310   -0.000000
     12          1           0       -1.681860    3.090150   -0.000000
     13          1           0       -0.074250    4.933030   -0.000000
     14          6           0        0.603690   -2.869960   -0.000000
     15          1           0        1.681860   -3.090150   -0.000000
     16          6           0       -0.269440   -3.892070   -0.000000
     17          1           0       -1.355180   -3.742310   -0.000000
     18          1           0        0.074250   -4.933030   -0.000000
     19          6           0        1.325390   -0.457060   -0.000000
     20          1           0        2.364760   -0.813040   -0.000000
 ---------------------------------------------------------------------

 SCF Done:  E(RHF) =  -379.769107251     A.U. after   11 cycles
 E2 =    -0.6002422117D+00 EUMP2 =    -0.38036934946319D+03

 Excitation energies and oscillator strengths:

 ----------------------------------------------
 Excited State   1:      Triplet-BU     3.0322 eV  408.89 nm  f=0.0000
 Right Eigenvector
 Alpha Singles Amplitudes
     I    SymI    A    SymA    Value
    32      2    39      3    0.144822
    34      2    37      3    0.267813
    35      2    36      3    0.564898
    28      3    40      2    0.104164
    33      3    38      2   -0.207746
 Beta  Singles Amplitudes
     I    SymI    A    SymA    Value
    32      2    39      3   -0.144822
    34      2    37      3   -0.267813
    35      2    36      3   -0.564898
    28      3    40      2   -0.104164
    33      3    38      2    0.207746
 Left  Eigenvector
 Alpha Singles Amplitudes
     I    SymI    A    SymA    Value
    32      2    39      3    0.158424
    34      2    37      3    0.284372
    35      2    36      3    0.547451
    28      3    40      2    0.118771
    33      3    38      2   -0.217284
 Beta  Singles Amplitudes
     I    SymI    A    SymA    Value
    32      2    39      3   -0.158424
    34      2    37      3   -0.284372
    35      2    36      3   -0.547451
    28      3    40      2   -0.118771
    33      3    38      2    0.217284
 Total Energy, E(EOM-CCSD) =  -380.388940686

 ----------------------------------------------
 Excited State   2:      Triplet-AG     4.6349 eV  267.50 nm  f=0.0000
 Right Eigenvector
 Alpha Singles Amplitudes
     I    SymI    A    SymA    Value
    32      2    38      2    0.248360
    35      2    38      2    0.396759
    33      3    36      3   -0.435078
    33      3    39      3   -0.226839
 Beta  Singles Amplitudes
     I    SymI    A    SymA    Value
    32      2    38      2   -0.248360
    35      2    38      2   -0.396759
    33      3    36      3    0.435078
    33      3    39      3    0.226839
 Left  Eigenvector
 Alpha Singles Amplitudes
     I    SymI    A    SymA    Value
    32      2    38      2    0.257945
    35      2    38      2    0.392649
    33      3    36      3   -0.430108
    33      3    39      3   -0.236634
 Beta  Singles Amplitudes
     I    SymI    A    SymA    Value
    32      2    38      2   -0.257945
    35      2    38      2   -0.392649
    33      3    36      3    0.430108
    33      3    39      3    0.236634

 ----------------------------------------------
 Excited State   3:      Triplet-BU     5.0736 eV  244.37 nm  f=0.0000
 Right Eigenvector
 Alpha Singles Amplitudes
     I    SymI    A    SymA    Value
    32      2    36      3   -0.227078
    34      2    37      3    0.501311
    35      2    36      3   -0.179115
    35      2    39      3   -0.189940
    28      3    38      2    0.107136
    33      3    38      2    0.236318
 Beta  Singles Amplitudes
     I    SymI    A    SymA    Value
    32      2    36      3    0.227078
    34      2    37      3   -0.501311
    35      2    36      3    0.179115
    35      2    39      3    0.189940
    28      3    38      2   -0.107136
    33      3    38      2   -0.236318
 Left  Eigenvector
 Alpha Singles Amplitudes
     I    SymI    A    SymA    Value
    32      2    36      3   -0.239954
    34      2    37      3    0.492862
    35      2    36      3   -0.157974
    35      2    39      3   -0.202395
    28      3    38      2    0.113466
    33      3    38      2    0.245844
 Beta  Singles Amplitudes
     I    SymI    A    SymA    Value
    32      2    36      3    0.239954
    34      2    37      3   -0.492862
    35      2    36      3    0.157974
    35      2    39      3    0.202395
    28      3    38      2   -0.113466
    33      3    38      2   -0.245844

 ----------------------------------------------
 Excited State   4:      Singlet-BU     5.4733 eV  226.52 nm  f=0.0006
 Right Eigenvector
 Alpha Singles Amplitudes
     I    SymI    A    SymA    Value
    32      2    37      3   -0.134436
    34      2    36      3   -0.456590
    34      2    39      3    0.129319
    35      2    37      3    0.422363
 Beta  Singles Amplitudes
     I    SymI    A    SymA    Value
    32      2    37      3   -0.134436
    34      2    36      3   -0.456590
    34      2    39      3    0.129319
    35      2    37      3    0.422363
 Left  Eigenvector
 Alpha Singles Amplitudes
     I    SymI    A    SymA    Value
    32      2    37      3   -0.135926
    34      2    36      3   -0.445938
    34      2    39      3    0.130651
    35      2    37      3    0.411746
 Beta  Singles Amplitudes
     I    SymI    A    SymA    Value
    32      2    37      3   -0.135926
    34      2    36      3   -0.445938
    34      2    39      3    0.130651
    35      2    37      3    0.411746

 ----------------------------------------------
 Excited State   5:      Triplet-BU     5.4931 eV  225.71 nm  f=0.0000
 Right Eigenvector
 Alpha Singles Amplitudes
     I    SymI    A    SymA    Value
    32      2    37      3    0.134332
    34      2    36      3   -0.462537
    34      2    39      3    0.133753
    35      2    37      3   -0.415585
 Beta  Singles Amplitudes
     I    SymI    A    SymA    Value
    32      2    37      3   -0.134332
    34      2    36      3    0.462537
    34      2    39      3   -0.133753
    35      2    37      3    0.415585
 Left  Eigenvector
 Alpha Singles Amplitudes
     I    SymI    A    SymA    Value
    32      2    37      3    0.139845
    34      2    36      3   -0.460994
    34      2    39      3    0.138582
    35      2    37      3   -0.414734
 Beta  Singles Amplitudes
     I    SymI    A    SymA    Value
    32      2    37      3   -0.139845
    34      2    36      3    0.460994
    34      2    39      3   -0.138582
    35      2    37      3    0.414734

 ----------------------------------------------
 Excited State   6:      Triplet-BU     5.8867 eV  210.62 nm  f=0.0000
 Right Eigenvector
 Alpha Singles Amplitudes
     I    SymI    A    SymA    Value
    32      2    36      3   -0.335569
    34      2    37      3   -0.332169
    35      2    36      3    0.221384
    35      2    39      3   -0.281140
    33      3    38      2    0.282681
 Beta  Singles Amplitudes
     I    SymI    A    SymA    Value
    32      2    36      3    0.335569
    34      2    37      3    0.332169
    35      2    36      3   -0.221384
    35      2    39      3    0.281140
    33      3    38      2   -0.282681
 Left  Eigenvector
 Alpha Singles Amplitudes
     I    SymI    A    SymA    Value
    32      2    36      3   -0.345120
    34      2    37      3   -0.318847
    35      2    36      3    0.195905
    35      2    39      3   -0.289172
    33      3    38      2    0.299074
 Beta  Singles Amplitudes
     I    SymI    A    SymA    Value
    32      2    36      3    0.345120
    34      2    37      3    0.318847
    35      2    36      3   -0.195905
    35      2    39      3    0.289172
    33      3    38      2   -0.299074

 ----------------------------------------------
 Excited State   7:      Singlet-BU     7.6268 eV  162.56 nm  f=0.9802
 Right Eigenvector
 Alpha Singles Amplitudes
     I    SymI    A    SymA    Value
    35      2    36      3    0.666396
 Beta  Singles Amplitudes
     I    SymI    A    SymA    Value
    35      2    36      3    0.666396
 Left  Eigenvector
 Alpha Singles Amplitudes
     I    SymI    A    SymA    Value
    35      2    36      3    0.661756
 Beta  Singles Amplitudes
     I    SymI    A    SymA    Value
    35      2    36      3    0.661756

 ----------------------------------------------
 Excited State   8:      Triplet-AG     7.7052 eV  160.91 nm  f=0.0000
 Right Eigenvector
 Alpha Singles Amplitudes
     I    SymI    A    SymA    Value
    34      2    38      2    0.325375
    34      2    40      2    0.277789
    28      3    37      3    0.349218
    33      3    37      3   -0.328566
 Beta  Singles Amplitudes
     I    SymI    A    SymA    Value
    34      2    38      2   -0.325375
    34      2    40      2   -0.277789
    28      3    37      3   -0.349218
    33      3    37      3    0.328566
 Alpha-Beta  Doubles Amplitudes
     I    SymI    J    SymJ    A    SymA    B    SymB    Value
    34      2    35      2    36      3    36      3   -0.108588
    35      2    34      2    36      3    36      3    0.108588
    35      2    35      2    36      3    37      3   -0.106243
    35      2    35      2    37      3    36      3    0.106243
 Left  Eigenvector
 Alpha Singles Amplitudes
     I    SymI    A    SymA    Value
    34      2    38      2    0.321473
    34      2    40      2    0.287038
    28      3    37      3    0.360378
    33      3    37      3   -0.324815
 Beta  Singles Amplitudes
     I    SymI    A    SymA    Value
    34      2    38      2   -0.321473
    34      2    40      2   -0.287038
    28      3    37      3   -0.360378
    33      3    37      3    0.324815

 ----------------------------------------------
 Excited State   9:      Triplet-BU     7.7788 eV  159.39 nm  f=0.0000
 Right Eigenvector
 Alpha Singles Amplitudes
     I    SymI    A    SymA    Value
    32      2    37      3    0.108779
    34      2    36      3    0.454143
    35      2    37      3   -0.490085
 Beta  Singles Amplitudes
     I    SymI    A    SymA    Value
    32      2    37      3   -0.108779
    34      2    36      3   -0.454143
    35      2    37      3    0.490085
 Left  Eigenvector
 Alpha Singles Amplitudes
     I    SymI    A    SymA    Value
    32      2    37      3    0.110763
    34      2    36      3    0.450382
    35      2    37      3   -0.486549
 Beta  Singles Amplitudes
     I    SymI    A    SymA    Value
    32      2    37      3   -0.110763
    34      2    36      3   -0.450382
    35      2    37      3    0.486549

 ----------------------------------------------
 Excited State  10:      Triplet-AG     7.9396 eV  156.16 nm  f=0.0000
 Right Eigenvector
 Alpha Singles Amplitudes
     I    SymI    A    SymA    Value
    32      2    38      2    0.248004
    35      2    38      2   -0.111931
    35      2    40      2   -0.276673
    28      3    36      3   -0.395642
    33      3    36      3    0.110454
    33      3    39      3   -0.222543
 Beta  Singles Amplitudes
     I    SymI    A    SymA    Value
    32      2    38      2   -0.248004
    35      2    38      2    0.111931
    35      2    40      2    0.276673
    28      3    36      3    0.395642
    33      3    36      3   -0.110454
    33      3    39      3    0.222543
 Alpha-Beta  Doubles Amplitudes
     I    SymI    J    SymJ    A    SymA    B    SymB    Value
    34      2    35      2    36      3    37      3    0.222820
    35      2    34      2    37      3    36      3   -0.222820
 Left  Eigenvector
 Alpha Singles Amplitudes
     I    SymI    A    SymA    Value
    32      2    38      2    0.255481
    35      2    38      2   -0.102268
    35      2    40      2   -0.278703
    28      3    36      3   -0.397884
    33      3    39      3   -0.229639
 Beta  Singles Amplitudes
     I    SymI    A    SymA    Value
    32      2    38      2   -0.255481
    35      2    38      2    0.102268
    35      2    40      2    0.278703
    28      3    36      3    0.397884
    33      3    39      3    0.229639
 Alpha-Beta  Doubles Amplitudes
     I    SymI    J    SymJ    A    SymA    B    SymB    Value
    34      2    35      2    36      3    37      3    0.211060
    35      2    34      2    37      3    36      3   -0.211060
 Ground to excited state transition densities written to RWF  633

 The electronic state is 1-AG.
 Alpha  occ. eigenvalues --  -11.04058 -11.04052 -11.03178 -11.03178 -11.02888
 Alpha  occ. eigenvalues --  -11.02877 -11.02837 -11.02832 -11.01769 -11.01769
 Alpha  occ. eigenvalues --   -1.09036  -1.02031  -0.97505  -0.95014  -0.90987
 Alpha  occ. eigenvalues --   -0.80011  -0.76255  -0.72792  -0.69708  -0.62786
 Alpha  occ. eigenvalues --   -0.60589  -0.57247  -0.55390  -0.55335  -0.52484
 Alpha  occ. eigenvalues --   -0.49695  -0.49286  -0.46379  -0.44666  -0.42141
 Alpha  occ. eigenvalues --   -0.41562  -0.37707  -0.31525  -0.27828  -0.22227
 Alpha virt. eigenvalues --    0.19887   0.26883   0.30868   0.39707   0.52203
 Alpha virt. eigenvalues --    0.56472   0.57567   0.62172   0.62560   0.65887
 Alpha virt. eigenvalues --    0.66020   0.67828   0.69448   0.70555   0.74005

 Mulliken charges:
               1
     1  C    0.001721
     2  C   -0.060489
     3  C   -0.059579
     4  C    0.001721
     5  C   -0.060489
     6  H    0.060469
     7  H    0.058352
     8  H    0.060469
     9  C   -0.055218
    10  C   -0.123833
    11  H    0.059244
    12  H    0.057850
    13  H    0.061483
    14  C   -0.055218
    15  H    0.057850
    16  C   -0.123833
    17  H    0.059244
    18  H    0.061483
    19  C   -0.059579
    20  H    0.058352
 Sum of Mulliken charges =   0.00000

 Dipole moment (field-independent basis, Debye):
    X=             -0.0000    Y=             -0.0000    Z=             -0.0000  Tot=              0.0000
 Quadrupole moment (field-independent basis, Debye-Ang):
   XX=            -51.5904   YY=            -52.4439   ZZ=            -58.5944
   XY=             -0.0492   XZ=              0.0000   YZ=              0.0000

 Normal termination of Gaussian 16 at Sat Jun 24 14:09:17 2023.
