 Gaussian 16, Revision C.01,
 Gaussian 16:  ES64L-G16RevC.01  3-Jul-2019

 ----------------------------------------------------------------------
 #p SP HF/STO-3G SCF=(DIIS) Symmetry=(Tight) SCRF=(IPCM, Solvent=Toluen
 e)
 ----------------------------------------------------------------------

 --------------------------------------------------
 water_Single_Point_HF_IPCM_Pople_Basis_Sets_STO_3G
 --------------------------------------------------
 Symbolic Z-matrix:
 Charge =  0 Multiplicity = 1

                         Standard orientation:
 ---------------------------------------------------------------------
 Center     Atomic      Atomic             Coordinates (Angstroms)
 Number     Number       Type             X           Y           Z
 ---------------------------------------------------------------------
      1          8           0        0.000000    0.000000    0.119160
      2          1           0       -0.000000    0.790650   -0.476640
      3          1           0       -0.000000   -0.790650   -0.476640
 ---------------------------------------------------------------------

 SCF Done:  E(RHF) =  -74.9643288676     A.U. after    7 cycles
 SCF Done:  E(RHF) =  -74.9889132637     A.U. after   10 cycles
 SCF Done:  E(RHF) =  -74.9911782723     A.U. after    8 cycles
 SCF Done:  E(RHF) =  -74.9913740070     A.U. after    7 cycles
 SCF Done:  E(RHF) =  -74.9913908201     A.U. after    5 cycles
 SCF Done:  E(RHF) =  -74.9913922715     A.U. after    5 cycles

 Unable to determine electronic state:  partially filled degenerate orbitals.
 Alpha  occ. eigenvalues --  -20.20084  -1.23565  -0.59196  -0.45226  -0.38873
 Alpha virt. eigenvalues --    0.61783   0.73897

 Mulliken charges:
               1
     1  O   -0.468121
     2  H    0.200917
     3  H    0.267204
 Sum of Mulliken charges =   0.00000

 Dipole moment (field-independent basis, Debye):
    X=             -0.0005    Y=             -0.2422    Z=             -2.0780  Tot=              2.0920
 Quadrupole moment (field-independent basis, Debye-Ang):
   XX=             -6.0631   YY=             -3.8451   ZZ=             -5.2431
   XY=              0.0001   XZ=              0.0001   YZ=              0.1113

 Normal termination of Gaussian 16 at Mon Jun 26 08:54:25 2023.
