 Gaussian 16, Revision C.01,
 Gaussian 16:  ES64L-G16RevC.01  3-Jul-2019

 ----------------------------------------------------------------------
 #p SP HF/STO-3G SCF=(DIIS) Symmetry=(Tight) SCRF=(SMD, Solvent=Toluene
 )
 ----------------------------------------------------------------------

 -------------------------------------------------
 water_Single_Point_HF_SMD_Pople_Basis_Sets_STO_3G
 -------------------------------------------------
 Symbolic Z-matrix:
 Charge =  0 Multiplicity = 1

                         Standard orientation:
 ---------------------------------------------------------------------
 Center     Atomic      Atomic             Coordinates (Angstroms)
 Number     Number       Type             X           Y           Z
 ---------------------------------------------------------------------
      1          8           0        0.000000    0.000000    0.119160
      2          1           0       -0.000000    0.790650   -0.476640
      3          1           0       -0.000000   -0.790650   -0.476640
 ---------------------------------------------------------------------

 SCF Done:  E(RHF) =  -74.9673020784     A.U. after    7 cycles

 The electronic state is 1-A1.
 Alpha  occ. eigenvalues --  -20.23813  -1.24705  -0.59938  -0.44330  -0.38541
 Alpha virt. eigenvalues --    0.57643   0.71341

 Mulliken charges:
               1
     1  O   -0.347812
     2  H    0.173906
     3  H    0.173906
 Sum of Mulliken charges =  -0.00000

 Dipole moment (field-independent basis, Debye):
    X=             -0.0000    Y=              0.0000    Z=             -1.7005  Tot=              1.7005
 Quadrupole moment (field-independent basis, Debye-Ang):
   XX=             -6.1174   YY=             -4.2648   ZZ=             -5.4059
   XY=              0.0000   XZ=              0.0000   YZ=              0.0000

 Normal termination of Gaussian 16 at Mon Jun 26 08:53:21 2023.
